# vtk DataFile Version 3.0
vtk output
ASCII
DATASET UNSTRUCTURED_GRID
POINTS 120 float
       0     0.2 6.95331e-310
       0       0 6.95331e-310
     0.2       0 6.95331e-310
 0.266665 0.161184 6.95331e-310
     0.2       0 6.95331e-310
     0.4       0 6.95331e-310
     0.6       0 6.95331e-310
     0.5    0.15 6.95331e-310
     0.4       0 6.95331e-310
     0.8       0 6.95331e-310
       1       0 6.95331e-310
       1     0.2 6.95331e-310
 0.826413 0.250249 6.95331e-310
       1     0.2 6.95331e-310
       1     0.4 6.95331e-310
       1     0.4 6.95331e-310
       1     0.6 6.95331e-310
 0.774215 0.440979 6.95331e-310
 0.826413 0.250249 6.95331e-310
       1     0.4 6.95331e-310
 0.774215 0.440979 6.95331e-310
 0.774215 0.440979 6.95331e-310
       1     0.6 6.95331e-310
     0.8     0.6 6.95331e-310
 0.774215 0.440979 6.95331e-310
     0.8     0.6 6.95331e-310
     0.6     0.6 6.95331e-310
     0.4     0.6 6.95331e-310
     0.5    0.45 6.95331e-310
     0.6     0.6 6.95331e-310
       0     0.4 6.95331e-310
     0.2     0.6 6.95331e-310
       0     0.6 6.95331e-310
 0.176908 0.347483 6.95331e-310
       0     0.4 6.95331e-310
       0     0.2 6.95331e-310
 0.266665 0.161184 6.95331e-310
     0.5    0.15 6.95331e-310
    0.35     0.3 6.95331e-310
 0.679951 0.13993 6.95331e-310
     0.5    0.15 6.95331e-310
     0.6       0 6.95331e-310
    0.65     0.3 6.95331e-310
     0.5    0.15 6.95331e-310
 0.679951 0.13993 6.95331e-310
 0.679951 0.13993 6.95331e-310
     0.6       0 6.95331e-310
     0.8       0 6.95331e-310
     0.6     0.6 6.95331e-310
     0.5    0.45 6.95331e-310
 0.774215 0.440979 6.95331e-310
     0.4       0 6.95331e-310
     0.5    0.15 6.95331e-310
 0.266665 0.161184 6.95331e-310
 0.320737 0.459912 6.95331e-310
     0.5    0.45 6.95331e-310
     0.4     0.6 6.95331e-310
    0.35     0.3 6.95331e-310
     0.5    0.45 6.95331e-310
 0.320737 0.459912 6.95331e-310
     0.4     0.6 6.95331e-310
     0.2     0.6 6.95331e-310
 0.320737 0.459912 6.95331e-310
 0.176908 0.347483 6.95331e-310
    0.35     0.3 6.95331e-310
 0.320737 0.459912 6.95331e-310
 0.826413 0.250249 6.95331e-310
     0.8       0 6.95331e-310
       1     0.2 6.95331e-310
 0.266665 0.161184 6.95331e-310
    0.35     0.3 6.95331e-310
 0.176908 0.347483 6.95331e-310
 0.176908 0.347483 6.95331e-310
     0.2     0.6 6.95331e-310
       0     0.4 6.95331e-310
     0.5    0.45 6.95331e-310
    0.65     0.3 6.95331e-310
 0.774215 0.440979 6.95331e-310
       0     0.2 6.95331e-310
     0.2       0 6.95331e-310
 0.266665 0.161184 6.95331e-310
 0.774215 0.440979 6.95331e-310
    0.65     0.3 6.95331e-310
 0.826413 0.250249 6.95331e-310
 0.176908 0.347483 6.95331e-310
       0     0.2 6.95331e-310
 0.266665 0.161184 6.95331e-310
 0.826413 0.250249 6.95331e-310
    0.65     0.3 6.95331e-310
 0.679951 0.13993 6.95331e-310
 0.679951 0.13993 6.95331e-310
     0.8       0 6.95331e-310
 0.826413 0.250249 6.95331e-310
 0.320737 0.459912 6.95331e-310
     0.2     0.6 6.95331e-310
 0.176908 0.347483 6.95331e-310
     0.6     0.6 6.95331e-310
     0.8     0.6 6.95331e-310
     0.8     0.8 6.95331e-310
     0.4     0.6 6.95331e-310
     0.6     0.6 6.95331e-310
     0.6     0.8 6.95331e-310
     0.2     0.8 6.95331e-310
     0.2     0.6 6.95331e-310
     0.4     0.6 6.95331e-310
     0.6     0.6 6.95331e-310
     0.8     0.8 6.95331e-310
     0.6     0.8 6.95331e-310
     0.4     0.8 6.95331e-310
     0.2     0.8 6.95331e-310
     0.4     0.6 6.95331e-310
     0.4     0.8 6.95331e-310
     0.4     0.6 6.95331e-310
     0.6     0.8 6.95331e-310
     0.5    0.45 6.95331e-310
     0.5    0.15 6.95331e-310
    0.65     0.3 6.95331e-310
    0.35     0.3 6.95331e-310
     0.5    0.15 6.95331e-310
     0.5    0.45 6.95331e-310
CELLS 40 160
3	0	1	2	
3	3	4	5	
3	6	7	8	
3	9	10	11	
3	12	13	14	
3	15	16	17	
3	18	19	20	
3	21	22	23	
3	24	25	26	
3	27	28	29	
3	30	31	32	
3	33	34	35	
3	36	37	38	
3	39	40	41	
3	42	43	44	
3	45	46	47	
3	48	49	50	
3	51	52	53	
3	54	55	56	
3	57	58	59	
3	60	61	62	
3	63	64	65	
3	66	67	68	
3	69	70	71	
3	72	73	74	
3	75	76	77	
3	78	79	80	
3	81	82	83	
3	84	85	86	
3	87	88	89	
3	90	91	92	
3	93	94	95	
3	96	97	98	
3	99	100	101	
3	102	103	104	
3	105	106	107	
3	108	109	110	
3	111	112	113	
3	114	115	116	
3	117	118	119	
CELL_TYPES 40
5 
5 
5 
5 
5 
5 
5 
5 
5 
5 
5 
5 
5 
5 
5 
5 
5 
5 
5 
5 
5 
5 
5 
5 
5 
5 
5 
5 
5 
5 
5 
5 
5 
5 
5 
5 
5 
5 
5 
5 
CELL_DATA 40
POINT_DATA 120
SCALARS dummy0 float 1
LOOKUP_TABLE default
0.010417 0.0111442 0.0120397 0.0125474 0.0120397 0.0140149 0.014012 0.0159826 0.0140149 0.012044 0.0111461 0.0104223 0.010762 0.0104223 0.00830843 0.00830843 0.00665831 0.00774132 0.010762 0.00830843 0.00774132 0.00774132 0.00665831 0.00275693 0.00774132 0.00275693 0.00150223 0.00145412 0.0100898 0.00150223 0.00829678 0.0027717 0.00665357 0.00946522 0.00829678 0.010417 0.0125474 0.0159826 0.0136486 0.0133887 0.0159826 0.014012 0.0136592 0.0159826 0.0133887 0.0133887 0.014012 0.012044 0.00150223 0.0100898 0.00774132 0.0140149 0.0159826 0.0125474 0.00767573 0.0100898 0.00145412 0.0136486 0.0100898 0.00767573 0.00145412 0.0027717 0.00767573 0.00946522 0.0136486 0.00767573 0.010762 0.012044 0.0104223 0.0125474 0.0136486 0.00946522 0.00946522 0.0027717 0.00829678 0.0100898 0.0136592 0.00774132 0.010417 0.0120397 0.0125474 0.00774132 0.0136592 0.010762 0.00946522 0.010417 0.0125474 0.010762 0.0136592 0.0133887 0.0133887 0.012044 0.010762 0.00767573 0.0027717 0.00946522 0.00150223 0.00275693 -0.000143994 0.00145412 0.00150223 -8.34035e-05 -0.000141951 0.0027717 0.00145412 0.00150223 -0.000143994 -8.34035e-05 -2.2071e-06 -0.000141951 0.00145412 -2.2071e-06 0.00145412 -8.34035e-05 0.0100898 0.0159826 0.0136592 0.0136486 0.0159826 0.0100898 
