<?xml version="1.0"?>
<VTKFile type="UnstructuredGrid" version="0.1" byte_order="LittleEndian">
  <UnstructuredGrid>
    <Piece NumberOfCells="300" NumberOfPoints="484">
      <CellData Scalars="pressure_water">
        <DataArray type="Float32" Name="pressure_water" NumberOfComponents="1" format="ascii">
          4.39812e+07 4.33062e+07 4.28167e+07 4.24331e+07 4.2103e+07 4.18053e+07 4.15362e+07 4.12803e+07 4.10544e+07 4.09079e+07 4.33062e+07 4.29919e+07
          4.26465e+07 4.2321e+07 4.20076e+07 4.17174e+07 4.14404e+07 4.11757e+07 4.09341e+07 4.07867e+07 4.28167e+07 4.26465e+07 4.24035e+07 4.21223e+07
          4.18338e+07 4.15456e+07 4.1249e+07 4.09594e+07 4.06986e+07 4.05444e+07 4.24331e+07 4.2321e+07 4.21223e+07 4.18747e+07 4.15953e+07 4.12885e+07
          4.0964e+07 4.06377e+07 4.03445e+07 4.01761e+07 4.2103e+07 4.20076e+07 4.18338e+07 4.15953e+07 4.13021e+07 4.096e+07 4.05892e+07 4.02038e+07
          3.98626e+07 3.96706e+07 4.18053e+07 4.17174e+07 4.15456e+07 4.12885e+07 4.096e+07 4.05632e+07 4.01143e+07 3.96439e+07 3.92421e+07 3.90092e+07
          4.15362e+07 4.14404e+07 4.1249e+07 4.0964e+07 4.05892e+07 4.01143e+07 3.95722e+07 3.89857e+07 3.84728e+07 3.81536e+07 4.12803e+07 4.11757e+07
          4.09594e+07 4.06377e+07 4.02038e+07 3.96439e+07 3.89857e+07 3.82601e+07 3.75426e+07 3.70201e+07 4.10544e+07 4.09341e+07 4.06986e+07 4.03445e+07
          3.98626e+07 3.92421e+07 3.84728e+07 3.75426e+07 3.64635e+07 3.54108e+07 4.09079e+07 4.07867e+07 4.05444e+07 4.01761e+07 3.96706e+07 3.90092e+07
          3.81536e+07 3.70201e+07 3.54108e+07 3.28396e+07 4.40015e+07 4.33285e+07 4.28443e+07 4.2463e+07 4.21401e+07 4.18471e+07 4.15799e+07 4.13266e+07
          4.11017e+07 4.09556e+07 4.33285e+07 4.30185e+07 4.26747e+07 4.23526e+07 4.20476e+07 4.17597e+07 4.1485e+07 4.1222e+07 4.09815e+07 4.08343e+07
          4.28443e+07 4.26747e+07 4.24335e+07 4.21606e+07 4.18753e+07 4.15879e+07 4.12943e+07 4.10061e+07 4.07461e+07 4.0592e+07 4.2463e+07 4.23526e+07
          4.21606e+07 4.19157e+07 4.16374e+07 4.13326e+07 4.10098e+07 4.06846e+07 4.03919e+07 4.02237e+07 4.21401e+07 4.20476e+07 4.18753e+07 4.16374e+07
          4.13454e+07 4.1005e+07 4.06352e+07 4.02507e+07 3.991e+07 3.97182e+07 4.18471e+07 4.17597e+07 4.15879e+07 4.13326e+07 4.1005e+07 4.0609e+07
          4.01609e+07 3.96911e+07 3.92895e+07 3.90567e+07 4.15799e+07 4.1485e+07 4.12943e+07 4.10098e+07 4.06352e+07 4.01609e+07 3.96191e+07 3.9033e+07
          3.85201e+07 3.8201e+07 4.13266e+07 4.1222e+07 4.10061e+07 4.06846e+07 4.02507e+07 3.96911e+07 3.9033e+07 3.83074e+07 3.75899e+07 3.70673e+07
          4.11017e+07 4.09815e+07 4.07461e+07 4.03919e+07 3.991e+07 3.92895e+07 3.85201e+07 3.75899e+07 3.65107e+07 3.54578e+07 4.09556e+07 4.08343e+07
          4.0592e+07 4.02237e+07 3.97182e+07 3.90567e+07 3.8201e+07 3.70673e+07 3.54578e+07 3.28558e+07 4.40349e+07 4.33865e+07 4.29207e+07 4.25393e+07
          4.22163e+07 4.19233e+07 4.16558e+07 4.14025e+07 4.11777e+07 4.10319e+07 4.33865e+07 4.30948e+07 4.2751e+07 4.24288e+07 4.21237e+07 4.18357e+07
          4.1561e+07 4.12979e+07 4.10577e+07 4.09106e+07 4.29207e+07 4.2751e+07 4.25097e+07 4.22367e+07 4.19514e+07 4.16638e+07 4.13702e+07 4.1082e+07
          4.08222e+07 4.06683e+07 4.25393e+07 4.24288e+07 4.22367e+07 4.19919e+07 4.17134e+07 4.14085e+07 4.10856e+07 4.07604e+07 4.0468e+07 4.02999e+07
          4.22163e+07 4.21237e+07 4.19514e+07 4.17134e+07 4.14213e+07 4.10808e+07 4.07109e+07 4.03265e+07 3.99861e+07 3.97943e+07 4.19233e+07 4.18357e+07
          4.16638e+07 4.14085e+07 4.10808e+07 4.06847e+07 4.02366e+07 3.9767e+07 3.93655e+07 3.91327e+07 4.16558e+07 4.1561e+07 4.13702e+07 4.10856e+07
          4.07109e+07 4.02366e+07 3.96947e+07 3.91089e+07 3.85961e+07 3.82769e+07 4.14025e+07 4.12979e+07 4.1082e+07 4.07604e+07 4.03265e+07 3.9767e+07
          3.91089e+07 3.83832e+07 3.76657e+07 3.71431e+07 4.11777e+07 4.10577e+07 4.08222e+07 4.0468e+07 3.99861e+07 3.93655e+07 3.85961e+07 3.76657e+07
          3.65863e+07 3.55332e+07 4.10319e+07 4.09106e+07 4.06683e+07 4.02999e+07 3.97943e+07 3.91327e+07 3.82769e+07 3.71431e+07 3.55332e+07 3.29055e+07
        </DataArray>
        <DataArray type="Float32" Name="pressure_oil" NumberOfComponents="1" format="ascii">
          4.39812e+07 4.33062e+07 4.28167e+07 4.24331e+07 4.2103e+07 4.18053e+07 4.15362e+07 4.12803e+07 4.10544e+07 4.09079e+07 4.33062e+07 4.29919e+07
          4.26465e+07 4.2321e+07 4.20076e+07 4.17174e+07 4.14404e+07 4.11757e+07 4.09341e+07 4.07867e+07 4.28167e+07 4.26465e+07 4.24035e+07 4.21223e+07
          4.18338e+07 4.15456e+07 4.1249e+07 4.09594e+07 4.06986e+07 4.05444e+07 4.24331e+07 4.2321e+07 4.21223e+07 4.18747e+07 4.15953e+07 4.12885e+07
          4.0964e+07 4.06377e+07 4.03445e+07 4.01761e+07 4.2103e+07 4.20076e+07 4.18338e+07 4.15953e+07 4.13021e+07 4.096e+07 4.05892e+07 4.02038e+07
          3.98626e+07 3.96706e+07 4.18053e+07 4.17174e+07 4.15456e+07 4.12885e+07 4.096e+07 4.05632e+07 4.01143e+07 3.96439e+07 3.92421e+07 3.90092e+07
          4.15362e+07 4.14404e+07 4.1249e+07 4.0964e+07 4.05892e+07 4.01143e+07 3.95722e+07 3.89857e+07 3.84728e+07 3.81536e+07 4.12803e+07 4.11757e+07
          4.09594e+07 4.06377e+07 4.02038e+07 3.96439e+07 3.89857e+07 3.82601e+07 3.75426e+07 3.70201e+07 4.10544e+07 4.09341e+07 4.06986e+07 4.03445e+07
          3.98626e+07 3.92421e+07 3.84728e+07 3.75426e+07 3.64635e+07 3.54108e+07 4.09079e+07 4.07867e+07 4.05444e+07 4.01761e+07 3.96706e+07 3.90092e+07
          3.81536e+07 3.70201e+07 3.54108e+07 3.28396e+07 4.40015e+07 4.33285e+07 4.28443e+07 4.2463e+07 4.21401e+07 4.18471e+07 4.15799e+07 4.13266e+07
          4.11017e+07 4.09556e+07 4.33285e+07 4.30185e+07 4.26747e+07 4.23526e+07 4.20476e+07 4.17597e+07 4.1485e+07 4.1222e+07 4.09815e+07 4.08343e+07
          4.28443e+07 4.26747e+07 4.24335e+07 4.21606e+07 4.18753e+07 4.15879e+07 4.12943e+07 4.10061e+07 4.07461e+07 4.0592e+07 4.2463e+07 4.23526e+07
          4.21606e+07 4.19157e+07 4.16374e+07 4.13326e+07 4.10098e+07 4.06846e+07 4.03919e+07 4.02237e+07 4.21401e+07 4.20476e+07 4.18753e+07 4.16374e+07
          4.13454e+07 4.1005e+07 4.06352e+07 4.02507e+07 3.991e+07 3.97182e+07 4.18471e+07 4.17597e+07 4.15879e+07 4.13326e+07 4.1005e+07 4.0609e+07
          4.01609e+07 3.96911e+07 3.92895e+07 3.90567e+07 4.15799e+07 4.1485e+07 4.12943e+07 4.10098e+07 4.06352e+07 4.01609e+07 3.96191e+07 3.9033e+07
          3.85201e+07 3.8201e+07 4.13266e+07 4.1222e+07 4.10061e+07 4.06846e+07 4.02507e+07 3.96911e+07 3.9033e+07 3.83074e+07 3.75899e+07 3.70673e+07
          4.11017e+07 4.09815e+07 4.07461e+07 4.03919e+07 3.991e+07 3.92895e+07 3.85201e+07 3.75899e+07 3.65107e+07 3.54578e+07 4.09556e+07 4.08343e+07
          4.0592e+07 4.02237e+07 3.97182e+07 3.90567e+07 3.8201e+07 3.70673e+07 3.54578e+07 3.28558e+07 4.40349e+07 4.33865e+07 4.29207e+07 4.25393e+07
          4.22163e+07 4.19233e+07 4.16558e+07 4.14025e+07 4.11777e+07 4.10319e+07 4.33865e+07 4.30948e+07 4.2751e+07 4.24288e+07 4.21237e+07 4.18357e+07
          4.1561e+07 4.12979e+07 4.10577e+07 4.09106e+07 4.29207e+07 4.2751e+07 4.25097e+07 4.22367e+07 4.19514e+07 4.16638e+07 4.13702e+07 4.1082e+07
          4.08222e+07 4.06683e+07 4.25393e+07 4.24288e+07 4.22367e+07 4.19919e+07 4.17134e+07 4.14085e+07 4.10856e+07 4.07604e+07 4.0468e+07 4.02999e+07
          4.22163e+07 4.21237e+07 4.19514e+07 4.17134e+07 4.14213e+07 4.10808e+07 4.07109e+07 4.03265e+07 3.99861e+07 3.97943e+07 4.19233e+07 4.18357e+07
          4.16638e+07 4.14085e+07 4.10808e+07 4.06847e+07 4.02366e+07 3.9767e+07 3.93655e+07 3.91327e+07 4.16558e+07 4.1561e+07 4.13702e+07 4.10856e+07
          4.07109e+07 4.02366e+07 3.96947e+07 3.91089e+07 3.85961e+07 3.82769e+07 4.14025e+07 4.12979e+07 4.1082e+07 4.07604e+07 4.03265e+07 3.9767e+07
          3.91089e+07 3.83832e+07 3.76657e+07 3.71431e+07 4.11777e+07 4.10577e+07 4.08222e+07 4.0468e+07 3.99861e+07 3.93655e+07 3.85961e+07 3.76657e+07
          3.65863e+07 3.55332e+07 4.10319e+07 4.09106e+07 4.06683e+07 4.02999e+07 3.97943e+07 3.91327e+07 3.82769e+07 3.71431e+07 3.55332e+07 3.29055e+07
        </DataArray>
        <DataArray type="Float32" Name="pressure_gas" NumberOfComponents="1" format="ascii">
          4.39812e+07 4.33062e+07 4.28167e+07 4.24331e+07 4.2103e+07 4.18053e+07 4.15362e+07 4.12803e+07 4.10544e+07 4.09079e+07 4.33062e+07 4.29919e+07
          4.26465e+07 4.2321e+07 4.20076e+07 4.17174e+07 4.14404e+07 4.11757e+07 4.09341e+07 4.07867e+07 4.28167e+07 4.26465e+07 4.24035e+07 4.21223e+07
          4.18338e+07 4.15456e+07 4.1249e+07 4.09594e+07 4.06986e+07 4.05444e+07 4.24331e+07 4.2321e+07 4.21223e+07 4.18747e+07 4.15953e+07 4.12885e+07
          4.0964e+07 4.06377e+07 4.03445e+07 4.01761e+07 4.2103e+07 4.20076e+07 4.18338e+07 4.15953e+07 4.13021e+07 4.096e+07 4.05892e+07 4.02038e+07
          3.98626e+07 3.96706e+07 4.18053e+07 4.17174e+07 4.15456e+07 4.12885e+07 4.096e+07 4.05632e+07 4.01143e+07 3.96439e+07 3.92421e+07 3.90092e+07
          4.15362e+07 4.14404e+07 4.1249e+07 4.0964e+07 4.05892e+07 4.01143e+07 3.95722e+07 3.89857e+07 3.84728e+07 3.81536e+07 4.12803e+07 4.11757e+07
          4.09594e+07 4.06377e+07 4.02038e+07 3.96439e+07 3.89857e+07 3.82601e+07 3.75426e+07 3.70201e+07 4.10544e+07 4.09341e+07 4.06986e+07 4.03445e+07
          3.98626e+07 3.92421e+07 3.84728e+07 3.75426e+07 3.64635e+07 3.54108e+07 4.09079e+07 4.07867e+07 4.05444e+07 4.01761e+07 3.96706e+07 3.90092e+07
          3.81536e+07 3.70201e+07 3.54108e+07 3.28396e+07 4.40015e+07 4.33285e+07 4.28443e+07 4.2463e+07 4.21401e+07 4.18471e+07 4.15799e+07 4.13266e+07
          4.11017e+07 4.09556e+07 4.33285e+07 4.30185e+07 4.26747e+07 4.23526e+07 4.20476e+07 4.17597e+07 4.1485e+07 4.1222e+07 4.09815e+07 4.08343e+07
          4.28443e+07 4.26747e+07 4.24335e+07 4.21606e+07 4.18753e+07 4.15879e+07 4.12943e+07 4.10061e+07 4.07461e+07 4.0592e+07 4.2463e+07 4.23526e+07
          4.21606e+07 4.19157e+07 4.16374e+07 4.13326e+07 4.10098e+07 4.06846e+07 4.03919e+07 4.02237e+07 4.21401e+07 4.20476e+07 4.18753e+07 4.16374e+07
          4.13454e+07 4.1005e+07 4.06352e+07 4.02507e+07 3.991e+07 3.97182e+07 4.18471e+07 4.17597e+07 4.15879e+07 4.13326e+07 4.1005e+07 4.0609e+07
          4.01609e+07 3.96911e+07 3.92895e+07 3.90567e+07 4.15799e+07 4.1485e+07 4.12943e+07 4.10098e+07 4.06352e+07 4.01609e+07 3.96191e+07 3.9033e+07
          3.85201e+07 3.8201e+07 4.13266e+07 4.1222e+07 4.10061e+07 4.06846e+07 4.02507e+07 3.96911e+07 3.9033e+07 3.83074e+07 3.75899e+07 3.70673e+07
          4.11017e+07 4.09815e+07 4.07461e+07 4.03919e+07 3.991e+07 3.92895e+07 3.85201e+07 3.75899e+07 3.65107e+07 3.54578e+07 4.09556e+07 4.08343e+07
          4.0592e+07 4.02237e+07 3.97182e+07 3.90567e+07 3.8201e+07 3.70673e+07 3.54578e+07 3.28558e+07 4.40349e+07 4.33865e+07 4.29207e+07 4.25393e+07
          4.22163e+07 4.19233e+07 4.16558e+07 4.14025e+07 4.11777e+07 4.10319e+07 4.33865e+07 4.30948e+07 4.2751e+07 4.24288e+07 4.21237e+07 4.18357e+07
          4.1561e+07 4.12979e+07 4.10577e+07 4.09106e+07 4.29207e+07 4.2751e+07 4.25097e+07 4.22367e+07 4.19514e+07 4.16638e+07 4.13702e+07 4.1082e+07
          4.08222e+07 4.06683e+07 4.25393e+07 4.24288e+07 4.22367e+07 4.19919e+07 4.17134e+07 4.14085e+07 4.10856e+07 4.07604e+07 4.0468e+07 4.02999e+07
          4.22163e+07 4.21237e+07 4.19514e+07 4.17134e+07 4.14213e+07 4.10808e+07 4.07109e+07 4.03265e+07 3.99861e+07 3.97943e+07 4.19233e+07 4.18357e+07
          4.16638e+07 4.14085e+07 4.10808e+07 4.06847e+07 4.02366e+07 3.9767e+07 3.93655e+07 3.91327e+07 4.16558e+07 4.1561e+07 4.13702e+07 4.10856e+07
          4.07109e+07 4.02366e+07 3.96947e+07 3.91089e+07 3.85961e+07 3.82769e+07 4.14025e+07 4.12979e+07 4.1082e+07 4.07604e+07 4.03265e+07 3.9767e+07
          3.91089e+07 3.83832e+07 3.76657e+07 3.71431e+07 4.11777e+07 4.10577e+07 4.08222e+07 4.0468e+07 3.99861e+07 3.93655e+07 3.85961e+07 3.76657e+07
          3.65863e+07 3.55332e+07 4.10319e+07 4.09106e+07 4.06683e+07 4.02999e+07 3.97943e+07 3.91327e+07 3.82769e+07 3.71431e+07 3.55332e+07 3.29055e+07
        </DataArray>
        <DataArray type="Float32" Name="density_water" NumberOfComponents="1" format="ascii">
          1002.81 1002.49 1002.26 1002.08 1001.93 1001.79 1001.66 1001.54 1001.44 1001.37 1002.49 1002.35
          1002.18 1002.03 1001.88 1001.75 1001.62 1001.5 1001.38 1001.31 1002.26 1002.18 1002.07 1001.94
          1001.8 1001.67 1001.53 1001.39 1001.27 1001.2 1002.08 1002.03 1001.94 1001.82 1001.69 1001.55
          1001.4 1001.24 1001.11 1001.03 1001.93 1001.88 1001.8 1001.69 1001.55 1001.39 1001.22 1001.04
          1000.88 1000.79 1001.79 1001.75 1001.67 1001.55 1001.39 1001.21 1001 1000.78 1000.59 1000.48
          1001.66 1001.62 1001.53 1001.4 1001.22 1001 1000.75 1000.47 1000.23 1000.08 1001.54 1001.5
          1001.39 1001.24 1001.04 1000.78 1000.47 1000.13 999.798 999.554 1001.44 1001.38 1001.27 1001.11
          1000.88 1000.59 1000.23 999.798 999.294 998.803 1001.37 1001.31 1001.2 1001.03 1000.79 1000.48
          1000.08 999.554 998.803 997.604 1002.82 1002.5 1002.28 1002.1 1001.95 1001.81 1001.68 1001.57
          1001.46 1001.39 1002.5 1002.36 1002.2 1002.05 1001.9 1001.77 1001.64 1001.52 1001.4 1001.34
          1002.28 1002.2 1002.08 1001.96 1001.82 1001.69 1001.55 1001.42 1001.29 1001.22 1002.1 1002.05
          1001.96 1001.84 1001.71 1001.57 1001.42 1001.27 1001.13 1001.05 1001.95 1001.9 1001.82 1001.71
          1001.58 1001.42 1001.24 1001.06 1000.9 1000.81 1001.81 1001.77 1001.69 1001.57 1001.42 1001.23
          1001.02 1000.8 1000.61 1000.51 1001.68 1001.64 1001.55 1001.42 1001.24 1001.02 1000.77 1000.49
          1000.25 1000.11 1001.57 1001.52 1001.42 1001.27 1001.06 1000.8 1000.49 1000.15 999.82 999.576
          1001.46 1001.4 1001.29 1001.13 1000.9 1000.61 1000.25 999.82 999.316 998.825 1001.39 1001.34
          1001.22 1001.05 1000.81 1000.51 1000.11 999.576 998.825 997.612 1002.83 1002.53 1002.31 1002.13
          1001.98 1001.85 1001.72 1001.6 1001.5 1001.43 1002.53 1002.39 1002.23 1002.08 1001.94 1001.8
          1001.68 1001.55 1001.44 1001.37 1002.31 1002.23 1002.12 1001.99 1001.86 1001.72 1001.59 1001.45
          1001.33 1001.26 1002.13 1002.08 1001.99 1001.88 1001.75 1001.6 1001.45 1001.3 1001.16 1001.09
          1001.98 1001.94 1001.86 1001.75 1001.61 1001.45 1001.28 1001.1 1000.94 1000.85 1001.85 1001.8
          1001.72 1001.6 1001.45 1001.27 1001.06 1000.84 1000.65 1000.54 1001.72 1001.68 1001.59 1001.45
          1001.28 1001.06 1000.8 1000.53 1000.29 1000.14 1001.6 1001.55 1001.45 1001.3 1001.1 1000.84
          1000.53 1000.19 999.855 999.611 1001.5 1001.44 1001.33 1001.16 1000.94 1000.65 1000.29 999.855
          999.351 998.86 1001.43 1001.37 1001.26 1001.09 1000.85 1000.54 1000.14 999.611 998.86 997.635
        </DataArray>
        <DataArray type="Float32" Name="density_oil" NumberOfComponents="1" format="ascii">
          642.62 641.727 641.079 640.571 640.134 639.74 639.384 639.045 638.746 638.553 641.727 641.311
          640.854 640.423 640.008 639.624 639.257 638.907 638.587 638.392 641.079 640.854 640.532 640.16
          639.778 639.397 639.004 638.621 638.276 638.072 640.571 640.423 640.16 639.832 639.462 639.056
          638.627 638.195 637.807 637.584 640.134 640.008 639.778 639.462 639.074 638.622 638.131 637.621
          637.169 636.915 639.74 639.624 639.397 639.056 638.622 638.096 637.502 636.88 636.348 636.04
          639.384 639.257 639.004 638.627 638.131 637.502 636.785 636.009 635.33 634.907 639.045 638.907
          638.621 638.195 637.621 636.88 636.009 635.048 634.099 633.407 638.746 638.587 638.276 637.807
          637.169 636.348 635.33 634.099 632.671 631.277 638.553 638.392 638.072 637.584 636.915 636.04
          634.907 633.407 631.277 632.952 642.647 641.756 641.115 640.611 640.183 639.796 639.442 639.107
          638.809 638.616 641.756 641.346 640.891 640.465 640.061 639.68 639.316 638.968 638.65 638.455
          641.115 640.891 640.572 640.211 639.833 639.453 639.064 638.683 638.339 638.135 640.611 640.465
          640.211 639.886 639.518 639.115 638.688 638.257 637.87 637.647 640.183 640.061 639.833 639.518
          639.132 638.681 638.192 637.683 637.232 636.978 639.796 639.68 639.453 639.115 638.681 638.157
          637.564 636.942 636.411 636.103 639.442 639.316 639.064 638.688 638.192 637.564 636.847 636.071
          635.393 634.97 639.107 638.968 638.683 638.257 637.683 636.942 636.071 635.111 634.161 633.47
          638.809 638.65 638.339 637.87 637.232 636.411 635.393 634.161 632.733 631.34 638.616 638.455
          638.135 637.647 636.978 636.103 634.97 633.47 631.34 632.841 642.691 641.833 641.216 640.712
          640.284 639.896 639.542 639.207 638.91 638.717 641.833 641.447 640.992 640.565 640.162 639.781
          639.417 639.069 638.751 638.556 641.216 640.992 640.672 640.311 639.934 639.553 639.164 638.783
          638.439 638.235 640.712 640.565 640.311 639.987 639.619 639.215 638.788 638.357 637.97 637.748
          640.284 640.162 639.934 639.619 639.232 638.781 638.292 637.783 637.333 637.079 639.896 639.781
          639.553 639.215 638.781 638.257 637.664 637.043 636.511 636.203 639.542 639.417 639.164 638.788
          638.292 637.664 636.947 636.172 635.493 635.071 639.207 639.069 638.783 638.357 637.783 637.043
          636.172 635.211 634.262 633.57 638.91 638.751 638.439 637.97 637.333 636.511 635.493 634.262
          632.833 631.439 638.717 638.556 638.235 637.748 637.079 636.203 635.071 633.57 631.439 632.688
        </DataArray>
        <DataArray type="Float32" Name="density_gas" NumberOfComponents="1" format="ascii">
          288.756 284.848 282.015 279.794 277.883 276.16 274.602 273.121 271.813 270.966 284.848 283.029
          281.029 279.145 277.331 275.651 274.048 272.515 271.117 270.263 282.015 281.029 279.623 277.995
          276.325 274.657 272.94 271.263 269.754 268.861 279.794 279.145 277.995 276.562 274.944 273.168
          271.29 269.401 267.704 266.729 277.883 277.331 276.325 274.944 273.247 271.267 269.121 266.889
          264.914 263.803 276.16 275.651 274.657 273.168 271.267 268.97 266.371 263.648 261.322 259.974
          274.602 274.048 272.94 271.29 269.121 266.371 263.234 259.838 256.869 255.022 273.121 272.515
          271.263 269.401 266.889 263.648 259.838 255.638 251.485 248.46 271.813 271.117 269.754 267.704
          264.914 261.322 256.869 251.485 245.238 239.145 270.966 270.263 268.861 266.729 263.803 259.974
          255.022 248.46 239.145 222.526 288.873 284.977 282.175 279.967 278.098 276.402 274.855 273.389
          272.087 271.241 284.977 283.183 281.193 279.328 277.562 275.896 274.306 272.784 271.392 270.539
          282.175 281.193 279.796 278.217 276.565 274.901 273.202 271.534 270.029 269.137 279.967 279.328
          278.217 276.799 275.188 273.424 271.555 269.672 267.978 267.005 278.098 277.562 276.565 275.188
          273.498 271.527 269.387 267.161 265.189 264.078 276.402 275.896 274.901 273.424 271.527 269.235
          266.641 263.922 261.597 260.249 274.855 274.306 273.202 271.555 269.387 266.641 263.505 260.112
          257.143 255.296 273.389 272.784 271.534 269.672 267.161 263.922 260.112 255.912 251.759 248.734
          272.087 271.392 270.029 267.978 265.189 261.597 257.143 251.759 245.511 239.417 271.241 270.539
          269.137 267.005 264.078 260.249 255.296 248.734 239.417 222.636 289.066 285.313 282.616 280.409
          278.539 276.843 275.295 273.828 272.527 271.683 285.313 283.624 281.635 279.769 278.003 276.336
          274.746 273.223 271.832 270.981 282.616 281.635 280.237 278.657 277.005 275.341 273.641 271.973
          270.469 269.578 280.409 279.769 278.657 277.24 275.628 273.863 271.994 270.111 268.419 267.446
          278.539 278.003 277.005 275.628 273.937 271.966 269.825 267.6 265.629 264.519 276.843 276.336
          275.341 273.863 271.966 269.673 267.079 264.361 262.037 260.689 275.295 274.746 273.641 271.994
          269.825 267.079 263.943 260.552 257.583 255.735 273.828 273.223 271.973 270.111 267.6 264.361
          260.552 256.351 252.197 249.172 272.527 271.832 270.469 268.419 265.629 262.037 257.583 252.197
          245.949 239.853 271.683 270.981 269.578 267.446 264.519 260.689 255.735 249.172 239.853 222.973
        </DataArray>
        <DataArray type="Float32" Name="saturation_water" NumberOfComponents="1" format="ascii">
          0.118814 0.118887 0.118939 0.11898 0.119016 0.119048 0.119077 0.119104 0.119128 0.119144 0.118887 0.11892
          0.118957 0.118992 0.119026 0.119057 0.119087 0.119115 0.119141 0.119157 0.118939 0.118957 0.118983 0.119014
          0.119045 0.119076 0.119107 0.119139 0.119167 0.119183 0.11898 0.118992 0.119014 0.11904 0.11907 0.119103
          0.119138 0.119173 0.119205 0.119223 0.119016 0.119026 0.119045 0.11907 0.119102 0.119139 0.119178 0.11922
          0.119256 0.119277 0.119048 0.119057 0.119076 0.119103 0.119139 0.119181 0.119229 0.11928 0.119323 0.119348
          0.119077 0.119087 0.119107 0.119138 0.119178 0.119229 0.119288 0.119351 0.119406 0.11944 0.119104 0.119115
          0.119139 0.119173 0.11922 0.11928 0.119351 0.119429 0.119506 0.119563 0.119128 0.119141 0.119167 0.119205
          0.119256 0.119323 0.119406 0.119506 0.119623 0.119736 0.119144 0.119157 0.119183 0.119223 0.119277 0.119348
          0.11944 0.119563 0.119736 0.120014 0.118817 0.118889 0.118941 0.118982 0.119017 0.119048 0.119077 0.119104
          0.119128 0.119144 0.118889 0.118923 0.118959 0.118994 0.119027 0.119058 0.119087 0.119115 0.119141 0.119157
          0.118941 0.118959 0.118985 0.119015 0.119045 0.119076 0.119108 0.119139 0.119167 0.119183 0.118982 0.118994
          0.119015 0.119041 0.119071 0.119104 0.119138 0.119173 0.119205 0.119223 0.119017 0.119027 0.119045 0.119071
          0.119102 0.119139 0.119178 0.11922 0.119256 0.119277 0.119048 0.119058 0.119076 0.119104 0.119139 0.119181
          0.119229 0.11928 0.119323 0.119348 0.119077 0.119087 0.119108 0.119138 0.119178 0.119229 0.119288 0.119351
          0.119406 0.11944 0.119104 0.119115 0.119139 0.119173 0.11922 0.11928 0.119351 0.119429 0.119506 0.119563
          0.119128 0.119141 0.119167 0.119205 0.119256 0.119323 0.119406 0.119506 0.119623 0.119736 0.119144 0.119157
          0.119183 0.119223 0.119277 0.119348 0.11944 0.119563 0.119736 0.120018 0.118822 0.118891 0.118941 0.118982
          0.119017 0.119048 0.119077 0.119104 0.119128 0.119144 0.118891 0.118922 0.118959 0.118994 0.119027 0.119058
          0.119087 0.119115 0.119141 0.119157 0.118941 0.118959 0.118985 0.119014 0.119045 0.119076 0.119108 0.119139
          0.119166 0.119183 0.118982 0.118994 0.119014 0.119041 0.119071 0.119103 0.119138 0.119173 0.119205 0.119223
          0.119017 0.119027 0.119045 0.119071 0.119102 0.119139 0.119178 0.11922 0.119256 0.119277 0.119048 0.119058
          0.119076 0.119103 0.119139 0.119181 0.119229 0.11928 0.119323 0.119348 0.119077 0.119087 0.119108 0.119138
          0.119178 0.119229 0.119288 0.119351 0.119406 0.11944 0.119104 0.119115 0.119139 0.119173 0.11922 0.11928
          0.119351 0.119429 0.119506 0.119563 0.119128 0.119141 0.119166 0.119205 0.119256 0.119323 0.119406 0.119506
          0.119623 0.119736 0.119144 0.119157 0.119183 0.119223 0.119277 0.119348 0.11944 0.119563 0.119736 0.120021
        </DataArray>
        <DataArray type="Float32" Name="saturation_oil" NumberOfComponents="1" format="ascii">
          0.400047 0.417764 0.441537 0.466131 0.500704 0.541319 0.590399 0.662115 0.774152 0.870035 0.417764 0.43661
          0.456046 0.483673 0.5189 0.557683 0.608056 0.68164 0.796421 0.874782 0.441537 0.456046 0.478493 0.507887
          0.540107 0.577288 0.628522 0.70495 0.817707 0.877959 0.466131 0.483673 0.507887 0.534474 0.563694 0.601184
          0.651991 0.73081 0.838328 0.879764 0.500704 0.518901 0.540107 0.563695 0.592553 0.629331 0.680129 0.761714
          0.856661 0.880562 0.541319 0.557684 0.577289 0.601184 0.629332 0.665291 0.718715 0.801008 0.870133 0.880652
          0.590399 0.608056 0.628523 0.651992 0.680129 0.718716 0.772467 0.841732 0.878549 0.88056 0.662116 0.681641
          0.704951 0.730811 0.761715 0.801008 0.841732 0.874757 0.880494 0.880437 0.774153 0.796422 0.817708 0.838329
          0.856661 0.870134 0.878549 0.880494 0.880377 0.880264 0.870035 0.874783 0.87796 0.879764 0.880562 0.880652
          0.88056 0.880437 0.880264 0.720738 0.447493 0.581183 0.838294 0.880435 0.880983 0.880952 0.880923 0.880896
          0.880872 0.880856 0.581183 0.828884 0.879968 0.881006 0.880973 0.880942 0.880913 0.880885 0.880859 0.880843
          0.838294 0.879968 0.881015 0.880985 0.880955 0.880924 0.880892 0.880861 0.880833 0.880817 0.880435 0.881006
          0.880985 0.880959 0.880929 0.880897 0.880862 0.880827 0.880795 0.880777 0.880983 0.880973 0.880955 0.880929
          0.880898 0.880861 0.880822 0.88078 0.880744 0.880723 0.880952 0.880942 0.880924 0.880897 0.880861 0.880819
          0.880771 0.88072 0.880677 0.880652 0.880923 0.880913 0.880892 0.880862 0.880822 0.880771 0.880712 0.880649
          0.880594 0.88056 0.880896 0.880885 0.880861 0.880827 0.88078 0.88072 0.880649 0.880571 0.880494 0.880437
          0.880872 0.880859 0.880833 0.880795 0.880744 0.880677 0.880594 0.880494 0.880377 0.880264 0.880856 0.880843
          0.880817 0.880777 0.880723 0.880652 0.88056 0.880437 0.880264 0.831833 0.65359 0.817694 0.868189 0.881018
          0.880983 0.880952 0.880923 0.880896 0.880872 0.880856 0.817694 0.865073 0.881041 0.881006 0.880973 0.880942
          0.880913 0.880885 0.880859 0.880843 0.868189 0.881041 0.881015 0.880986 0.880955 0.880924 0.880892 0.880862
          0.880834 0.880817 0.881018 0.881006 0.880986 0.880959 0.880929 0.880897 0.880862 0.880827 0.880795 0.880777
          0.880983 0.880973 0.880955 0.880929 0.880898 0.880861 0.880822 0.88078 0.880744 0.880723 0.880952 0.880942
          0.880924 0.880897 0.880861 0.880819 0.880771 0.88072 0.880677 0.880652 0.880923 0.880913 0.880892 0.880862
          0.880822 0.880771 0.880712 0.880649 0.880594 0.88056 0.880896 0.880885 0.880862 0.880827 0.88078 0.88072
          0.880649 0.880571 0.880494 0.880437 0.880872 0.880859 0.880834 0.880795 0.880744 0.880677 0.880594 0.880494
          0.880377 0.880264 0.880856 0.880843 0.880817 0.880777 0.880723 0.880652 0.88056 0.880437 0.880264 0.858097
        </DataArray>
        <DataArray type="Float32" Name="saturation_gas" NumberOfComponents="1" format="ascii">
          0.481139 0.463349 0.439524 0.414889 0.38028 0.339634 0.290525 0.218781 0.10672 0.0108213 0.463349 0.444469
          0.424997 0.397335 0.362074 0.32326 0.272858 0.199245 0.0844378 0.0060604 0.439524 0.424997 0.402523 0.373099
          0.340848 0.303636 0.252371 0.175912 0.0631264 0.00285742 0.414889 0.397335 0.373099 0.346485 0.317235 0.279713
          0.228871 0.150016 0.0424671 0.00101277 0.38028 0.362073 0.340848 0.317235 0.288346 0.25153 0.200693 0.119066
          0.0240827 0.00016127 0.339633 0.323259 0.303636 0.279713 0.25153 0.215527 0.162055 0.0797122 0.0105435 0
          0.290524 0.272857 0.25237 0.22887 0.200692 0.162054 0.108245 0.038917 0.00204493 0 0.21878 0.199244
          0.175911 0.150016 0.119066 0.0797115 0.0389172 0.0058135 -1.22952e-17 0 0.106719 0.0844365 0.0631253 0.0424665
          0.0240823 0.0105431 0.00204495 0 -1.93813e-17 0 0.0108211 0.00606018 0.0028573 0.00101273 0.000161254 0
          0 1.35876e-16 0 0.159247 0.433689 0.299928 0.0427649 0.00058315 1.57852e-19 7.81659e-17 1.12617e-17 3.38967e-17
          0 4.98231e-17 0.299928 0.0521931 0.00107252 0 7.62271e-17 0 7.7285e-17 0 0 0
          0.0427648 0.00107252 8.16064e-17 1.40786e-17 5.45579e-17 4.24834e-17 3.05258e-17 5.42982e-17 0 9.56466e-17 0.000583146 0
          5.54793e-17 0 3.54188e-17 3.79186e-17 3.32396e-17 0 0 2.69786e-17 0 0 0 5.9818e-17
          0 7.22055e-17 6.45142e-17 0 3.74072e-17 3.18099e-17 1.95675e-17 9.37066e-18 1.20783e-16 3.68992e-17 7.09173e-17 1.78602e-17
          -7.46664e-19 3.16185e-17 0 0 8.19013e-17 2.36924e-17 9.71278e-19 0 1.55236e-17 0 0 5.38882e-17
          0 6.35877e-17 7.19479e-17 0 0 9.5381e-18 3.2306e-17 0 8.40154e-17 1.49055e-16 0 0
          6.28547e-17 4.13206e-17 0 6.24962e-17 8.14856e-17 0 0 0 -2.64912e-17 7.20546e-17 0 1.50139e-16
          0 2.61784e-17 0 7.23137e-17 0 4.42931e-17 0 0.048149 0.227589 0.0634146 0.0128699 -6.99111e-18
          1.76788e-18 6.08917e-17 0 5.81778e-17 -1.77112e-18 6.55785e-17 0.0634146 0.0160049 4.848e-17 0 0 0
          0 1.63376e-17 -8.29244e-18 5.16297e-18 0.0128698 0 6.80093e-18 0 0 6.15087e-17 0 1.17457e-17
          2.69567e-17 2.52794e-17 5.36301e-17 0 4.52331e-17 0 1.86604e-17 -1.56276e-18 8.5513e-17 4.32457e-17 5.22613e-18 7.43759e-17
          4.80793e-17 2.19606e-17 8.80208e-18 4.77823e-17 4.28389e-17 7.1234e-17 5.7718e-17 6.39503e-17 0 0 3.54992e-17 0
          6.80151e-17 7.6096e-17 1.23289e-17 0 7.07713e-17 3.4873e-17 3.58955e-17 0 0 8.57631e-17 7.14772e-17 0
          3.99029e-17 5.80951e-18 0 3.61746e-18 4.96517e-17 5.72381e-18 1.67723e-17 1.99441e-17 0 0 1.06606e-16 2.10895e-17
          0 2.01746e-17 2.38883e-17 7.55625e-18 9.49181e-19 2.15519e-17 3.98207e-17 8.95151e-17 2.93962e-17 2.8446e-17 8.89346e-17 7.75239e-17
          2.77431e-17 2.77838e-18 6.04908e-17 0 1.31574e-17 -1.80264e-17 1.53555e-17 3.78079e-17 3.50569e-17 0 5.7977e-17 0.0218822
        </DataArray>
        <DataArray type="Float32" Name="relativePerm_water" NumberOfComponents="1" format="ascii">
          0 0 0 0 0 0 0 0 0 0 0 0
          0 0 0 0 0 0 0 0 0 0 0 0
          0 0 0 0 0 0 0 0 0 0 0 0
          0 0 0 0 0 0 0 0 0 0 0 0
          0 0 0 0 0 0 0 0 0 0 0 0
          0 0 0 0 0 0 0 0 0 0 0 0
          0 0 0 0 0 0 0 0 0 0 0 0
          0 0 0 0 0 0 0 0 0 0 0 0
          0 0 0 0 0 0 0 0 0 0 0 0
          0 0 0 0 0 0 0 0 0 0 0 0
          0 0 0 0 0 0 0 0 0 0 0 0
          0 0 0 0 0 0 0 0 0 0 0 0
          0 0 0 0 0 0 0 0 0 0 0 0
          0 0 0 0 0 0 0 0 0 0 0 0
          0 0 0 0 0 0 0 0 0 0 0 0
          0 0 0 0 0 0 0 0 0 0 0 0
          0 0 0 0 0 0 0 0 0 0 0 0
          0 0 0 0 0 0 0 0 0 0 0 0